ITEM: TIMESTEP
7169000
ITEM: NUMBER OF ATOMS
6036
ITEM: BOX BOUNDS pp pp pp
-20.3909 20.3909
-20.3909 20.3909
-60.3909 60.3909
ITEM: ATOMS id type xs ys zs
2641 1 0.239508 0.146537 0.353114
5077 1 0.113201 0.198212 0.357306
5079 2 0.123708 0.217371 0.360549
5078 2 0.127048 0.179507 0.359481
3518 2 0.168013 0.138108 0.36675
3517 1 0.150621 0.152381 0.369186
3207 2 0.0713949 0.168598 0.352969
4109 2 0.202015 0.0957716 0.36802
2851 1 0.198689 0.0475663 0.368166
2853 2 0.182496 0.0409761 0.373663
2643 2 0.227993 0.139193 0.34665
5738 2 0.0424206 0.121066 0.362371
4108 1 0.213465 0.114737 0.370784
3205 1 0.0476468 0.167251 0.352478
5737 1 0.0395232 0.104318 0.367502
3206 2 0.0432227 0.183118 0.346556
2852 2 0.209692 0.0265649 0.366363
5252 2 0.0348307 0.183192 0.366524
5251 1 0.023796 0.189397 0.373278
2642 2 0.22635 0.137755 0.359189
5839 1 0.235965 0.000157263 0.361015
5739 2 0.0164009 0.105532 0.368881
2282 2 0.0730642 0.0877528 0.373195
2283 2 0.0894573 0.0553755 0.370119
341 2 0.182165 0.197462 0.372383
282 2 0.249651 0.234865 0.365558
5666 2 0.0409203 0.408376 0.355078
3024 2 0.0577259 0.363122 0.371312
1115 2 0.018128 0.291061 0.367977
2003 2 0.100538 0.4059 0.365535
4905 2 0.112693 0.281021 0.368948
1417 1 0.240581 0.385385 0.351975
3622 1 0.159343 0.263638 0.362488
2324 2 0.213638 0.261162 0.338313
3623 2 0.175315 0.252586 0.367199
3726 2 0.222113 0.425021 0.355787
3022 1 0.0527832 0.373666 0.364183
3624 2 0.167825 0.261314 0.355111
2479 1 0.156496 0.370705 0.356071
2481 2 0.162974 0.353561 0.361202
1278 2 0.106679 0.471191 0.354544
2002 1 0.11756 0.421137 0.364337
5667 2 0.0133993 0.42889 0.351174
2323 1 0.202233 0.261141 0.345395
3724 1 0.209118 0.441216 0.359689
5969 2 0.00193939 0.381681 0.330261
2603 2 0.226995 0.307525 0.360489
2004 2 0.129868 0.410569 0.358627
1276 1 0.0881506 0.474404 0.349618
2602 1 0.246576 0.32037 0.360194
1116 2 0.0532021 0.285308 0.367332
1114 1 0.0374398 0.297502 0.363344
2604 2 0.246441 0.327549 0.368
3023 2 0.0372276 0.357821 0.361374
2480 2 0.155131 0.35712 0.349669
2325 2 0.218767 0.251169 0.34987
5665 1 0.0367822 0.428049 0.350588
1277 2 0.0725716 0.457432 0.351112
3725 2 0.201017 0.428447 0.366308
279 2 0.208351 0.48319 0.366173
1419 2 0.22765 0.380959 0.345504
1604 2 0.00639252 0.317885 0.353418
3656 2 0.0587969 0.470559 0.373001
1418 2 0.246673 0.363717 0.354169
805 1 0.0540767 0.117218 0.417791
3056 2 0.131273 0.149466 0.42207
806 2 0.077402 0.11956 0.418812
3057 2 0.128179 0.115628 0.41639
3055 1 0.118563 0.13766 0.416613
807 2 0.0459272 0.134881 0.422359
1190 2 0.109675 0.0490477 0.411121
3565 1 0.200549 0.152159 0.420598
3567 2 0.193595 0.129804 0.422051
5038 1 0.0453994 0.154921 0.435374
2558 2 0.155234 0.0712872 0.387484
4134 2 0.198515 0.187147 0.412954
4132 1 0.194747 0.208008 0.408895
4133 2 0.19264 0.200791 0.401342
2964 2 0.0383428 0.0378147 0.39741
353 2 0.143677 0.149172 0.402159
5908 1 0.160766 0.177221 0.434743
354 2 0.157372 0.120815 0.396467
352 1 0.164801 0.141122 0.39955
2557 1 0.147186 0.0923235 0.384993
3533 2 0.165362 0.0143013 0.391894
3653 2 0.0746764 0.227441 0.434884
3534 2 0.189877 0.0370382 0.396142
1191 2 0.112358 0.0268255 0.401816
1189 1 0.0957327 0.0367553 0.406585
3532 1 0.177771 0.0335286 0.389424
5580 2 0.100989 0.173424 0.411269
2882 2 0.199913 0.0459599 0.414197
5579 2 0.0733223 0.189434 0.404308
1683 2 0.0890144 0.215271 0.390633
2559 2 0.126276 0.0853623 0.381577
1681 1 0.0731927 0.22026 0.385026
1682 2 0.079531 0.242057 0.38259
3566 2 0.185197 0.164246 0.425565
6004 4 0.156824 0.0712953 0.421034
2109 2 0.00083433 0.168507 0.429513
5578 1 0.0952875 0.193724 0.407312
1076 2 0.0344711 0.0922955 0.408157
4097 2 0.173918 0.242073 0.415968
342 2 0.20884 0.206712 0.380698
2523 2 0.109873 0.078296 0.432938
2883 2 0.233809 0.0385202 0.413755
5930 2 0.0246944 0.237357 0.423714
340 1 0.18885 0.215589 0.377071
2963 2 0.0632496 0.0340625 0.389071
2522 2 0.0954836 0.0460705 0.436907
5510 2 0.133288 0.0127989 0.427688
2881 1 0.214221 0.0329642 0.409669
654 2 0.0756293 0.00412935 0.413572
1220 2 0.0049906 0.172668 0.387171
4251 2 0.113914 0.223059 0.416451
4249 1 0.110635 0.240325 0.42211
4935 2 0.160648 0.247729 0.385314
1077 2 0.0451335 0.0929382 0.396181
2962 1 0.0404129 0.0285163 0.390127
1075 1 0.0277587 0.0855197 0.400694
5253 2 0.0404612 0.203202 0.377035
5909 2 0.159806 0.200043 0.432556
4011 2 0.232775 0.107543 0.397125
1256 2 0.244275 0.139347 0.426407
339 2 0.0267376 0.0162742 0.43501
5120 2 0.185169 0.0559164 0.435439
5121 2 0.217854 0.0461486 0.433106
5509 1 0.117626 0.0047578 0.43315
3519 2 0.14419 0.14018 0.375923
4110 2 0.218746 0.109782 0.378092
338 2 0.0369878 0.0532313 0.435329
5929 1 0.00406858 0.244574 0.420934
337 1 0.018195 0.038554 0.436339
3328 1 0.242547 0.199689 0.387316
5537 2 0.00148147 0.0452038 0.405821
2281 1 0.0913997 0.0740225 0.375264
558 2 0.00321722 0.0132664 0.382091
4021 1 0.108162 0.418462 0.38755
3655 1 0.0437993 0.473537 0.378903
651 2 0.0329028 0.25725 0.393524
4098 2 0.189313 0.274499 0.416666
4096 1 0.169001 0.263988 0.418691
2364 2 0.150757 0.361946 0.376875
5883 2 0.217009 0.369097 0.429073
4330 1 0.00776923 0.446131 0.432765
4793 2 0.214541 0.368608 0.409714
4794 2 0.230369 0.386434 0.400168
5497 1 0.24502 0.483906 0.390534
4167 2 0.194179 0.334251 0.397049
3006 2 0.012832 0.442112 0.381716
5931 2 0.0125239 0.266282 0.419685
4165 1 0.193925 0.312068 0.394019
4166 2 0.217229 0.308108 0.393156
1370 2 0.131317 0.35166 0.433507
2469 2 0.163688 0.454666 0.427363
4904 2 0.114803 0.281473 0.380925
2788 1 0.242485 0.401538 0.433699
2362 1 0.141969 0.339595 0.376483
2967 2 0.120528 0.328364 0.41368
2965 1 0.115502 0.337552 0.40643
4934 2 0.169547 0.282079 0.389345
3096 2 0.160696 0.416335 0.409682
4250 2 0.131506 0.252055 0.4218
2966 2 0.125923 0.321087 0.401673
4933 1 0.150348 0.267603 0.388037
2467 1 0.172072 0.43362 0.425034
254 2 0.0602662 0.443584 0.40306
205 1 0.00217869 0.497124 0.407627
253 1 0.0648308 0.467087 0.404805
255 2 0.0714113 0.468383 0.41235
5803 1 0.0579624 0.289667 0.423814
2468 2 0.164275 0.419073 0.430659
5498 2 0.243318 0.496531 0.383771
1369 1 0.142874 0.335998 0.428955
5804 2 0.0764712 0.278219 0.420976
5805 2 0.0638163 0.312013 0.422575
1371 2 0.164085 0.3457 0.42726
2093 2 0.0305491 0.40486 0.391134
3095 2 0.162627 0.384043 0.403228
3094 1 0.153834 0.407118 0.402628
3657 2 0.0575673 0.476894 0.385309
2094 2 0.0668322 0.411546 0.391031
2363 2 0.137929 0.331745 0.384057
4704 2 0.00716704 0.337617 0.403692
5499 2 0.245139 0.461884 0.387492
4903 1 0.0982901 0.27813 0.375376
4623 2 0.069364 0.340651 0.406512
4621 1 0.0511031 0.349778 0.410688
4622 2 0.0506503 0.370491 0.40705
5881 1 0.205356 0.35247 0.424769
4317 2 0.230947 0.415634 0.387199
3813 2 0.0759306 0.465421 0.434753
5157 2 0.119558 0.475877 0.387569
2092 1 0.0490989 0.403696 0.395947
4792 1 0.21688 0.367045 0.401626
5882 2 0.222815 0.335467 0.424868
4589 2 0.174244 0.431332 0.389993
3811 1 0.0753548 0.484514 0.429843
4022 2 0.124487 0.411455 0.392917
4331 2 0.0198161 0.466533 0.432391
4588 1 0.185111 0.434636 0.382912
2790 2 0.243824 0.420811 0.429002
650 2 0.0085622 0.275592 0.387152
4023 2 0.119657 0.419431 0.380386
207 2 0.0251218 0.489782 0.407756
5155 1 0.107582 0.496504 0.388139
5015 2 0.0441654 0.373076 0.425531
5014 1 0.0523284 0.383719 0.432137
5016 2 0.0342151 0.383666 0.437261
2380 1 0.14493 0.49464 0.432426
3812 2 0.098835 0.490479 0.429319
649 1 0.0154819 0.272214 0.394669
4590 2 0.183154 0.457991 0.382373
5040 2 0.0508707 0.17423 0.439187
5910 2 0.167746 0.17925 0.442418
3652 1 0.0599101 0.226549 0.441075
5039 2 0.0527682 0.139087 0.440894
3596 2 0.00808067 0.186737 0.475571
480 2 0.0464134 0.0109348 0.465771
2521 1 0.093605 0.0695634 0.437914
2830 1 0.21117 0.0747206 0.484478
2831 2 0.194311 0.0853354 0.48866
5612 2 0.0202507 0.0644509 0.462283
252 2 0.0907158 0.203643 0.498036
5598 2 0.0292545 0.127534 0.463643
5564 2 0.0311398 0.0436183 0.481658
2832 2 0.230443 0.0773008 0.489611
1870 1 0.218611 0.0421539 0.463129
1696 1 0.174864 0.122298 0.495552
251 2 0.115914 0.1943 0.489024
2776 1 0.0648517 0.114017 0.453094
2777 2 0.0733311 0.0938482 0.449638
3654 2 0.0744218 0.228481 0.447079
5596 1 0.005952 0.124363 0.463989
5964 2 0.0659944 0.198783 0.463176
939 2 0.177813 0.225855 0.454789
2778 2 0.0847613 0.122398 0.456632
3967 1 0.106471 0.14289 0.466765
3968 2 0.11523 0.132019 0.47332
5563 1 0.0334978 0.0506045 0.489411
3969 2 0.117053 0.163931 0.467552
250 1 0.0991588 0.185239 0.493818
5025 2 0.248637 0.00906498 0.463671
2516 2 0.203392 0.116522 0.475703
3818 2 0.00737404 0.0804182 0.485449
2517 2 0.188197 0.144657 0.480471
2515 1 0.196843 0.138192 0.473724
5153 2 0.112691 0.0235232 0.47135
1245 2 0.192392 0.169204 0.463837
1244 2 0.214511 0.175878 0.454434
1243 1 0.191902 0.178418 0.456387
789 2 0.178636 0.00871041 0.447631
914 2 0.120528 0.0680387 0.466826
2674 1 0.119902 0.0878006 0.480488
5119 1 0.202088 0.0420246 0.438825
913 1 0.121087 0.0510942 0.461242
915 2 0.123218 0.0651469 0.454876
4107 2 0.146098 0.213486 0.468938
4105 1 0.138702 0.205769 0.476201
1526 2 0.0735051 0.148049 0.492759
1054 1 0.203848 0.207192 0.498231
1525 1 0.0649906 0.125944 0.491415
1527 2 0.0420279 0.132024 0.490788
1056 2 0.194547 0.194673 0.492525
4106 2 0.145243 0.225219 0.480462
5963 2 0.0603086 0.169312 0.470418
937 1 0.161549 0.242074 0.457516
2675 2 0.0970343 0.0885678 0.481046
2676 2 0.126003 0.094181 0.48798
5962 1 0.0506734 0.189082 0.468404
4172 2 0.189205 0.0223775 0.48466
4171 1 0.182568 0.00875906 0.490782
5611 1 0.0199091 0.0477986 0.467667
1872 2 0.205617 0.0480295 0.469388
5152 1 0.104303 0.00613305 0.475824
5147 2 0.16994 0.24989 0.49414
5876 2 0.112333 0.239647 0.45974
5410 1 0.0408602 0.241354 0.486082
5875 1 0.0893026 0.237217 0.460764
5411 2 0.0551978 0.23153 0.480579
1871 2 0.20665 0.0514004 0.456784
5412 2 0.0222155 0.247476 0.481853
5565 2 0.0461324 0.0329092 0.492319
1698 2 0.19375 0.131753 0.498866
4897 1 0.0209316 0.288107 0.446592
3354 2 0.186319 0.308907 0.446755
3352 1 0.166361 0.296066 0.445715
5299 1 0.154117 0.468427 0.488513
2900 2 0.224131 0.381554 0.495852
5300 2 0.163907 0.48511 0.493123
1687 1 0.0425416 0.371791 0.497845
2388 2 0.155724 0.482021 0.46274
4332 2 0.00113372 0.447233 0.440333
3262 1 0.190163 0.488582 0.450712
4872 2 0.0645487 0.341784 0.460794
3264 2 0.189673 0.466609 0.45375
3353 2 0.156154 0.310623 0.440067
2288 2 0.205613 0.422035 0.463306
2382 2 0.156436 0.488783 0.439163
2606 2 0.0203077 0.468862 0.456087
5301 2 0.131103 0.471762 0.489135
2289 2 0.233 0.406007 0.460287
5137 1 0.0622775 0.472039 0.459624
1664 2 0.238791 0.26527 0.49148
5146 1 0.149884 0.259314 0.491257
3278 2 0.162841 0.330815 0.476515
1688 2 0.0571362 0.383115 0.492812
4383 2 0.00958491 0.428637 0.472943
4359 2 0.0780374 0.261744 0.4991
3130 1 0.075705 0.483745 0.494511
1663 1 0.230257 0.285676 0.494541
4898 2 0.0336893 0.287228 0.439953
429 2 0.237049 0.38479 0.476366
938 2 0.163828 0.259328 0.452201
1483 1 0.0745257 0.295264 0.473658
1665 2 0.245351 0.300394 0.49128
5099 2 0.0146683 0.38607 0.456301
4899 2 0.0126572 0.266288 0.447935
5139 2 0.075876 0.458563 0.455211
4572 2 0.0471269 0.460679 0.486165
2387 2 0.141465 0.472164 0.473154
2287 1 0.216881 0.418979 0.456428
3839 2 0.123333 0.331054 0.460594
2789 2 0.244423 0.413627 0.440306
2901 2 0.205017 0.348811 0.494612
4870 1 0.0801011 0.349024 0.455378
4228 1 0.193768 0.426448 0.479203
2340 2 0.10935 0.404714 0.48573
3270 2 0.228573 0.315092 0.455264
2748 2 0.012005 0.286254 0.462432
2386 1 0.138702 0.467392 0.46545
5138 2 0.0737517 0.472099 0.466739
3279 2 0.195994 0.340115 0.472675
4571 2 0.0471109 0.423208 0.48551
2747 2 0.0251594 0.295846 0.473642
1485 2 0.0956015 0.301286 0.470196
381 2 0.15895 0.369135 0.492065
4229 2 0.215959 0.429603 0.482096
4570 1 0.0319115 0.442494 0.485399
3769 1 0.0930161 0.426143 0.440925
380 2 0.167525 0.401546 0.485783
3771 2 0.114024 0.417962 0.444228
1656 2 0.150906 0.408078 0.455221
3838 1 0.133041 0.31323 0.464956
3840 2 0.149229 0.304953 0.459647
2339 2 0.0947545 0.375621 0.480628
1655 2 0.176979 0.399374 0.445976
3277 1 0.183894 0.337764 0.479307
3770 2 0.0809315 0.405957 0.439591
4871 2 0.0654071 0.351438 0.449167
3799 1 0.0879411 0.319867 0.494295
5877 2 0.0864423 0.255581 0.465485
3801 2 0.068887 0.333021 0.495848
1484 2 0.0792952 0.297741 0.481347
5098 1 0.00908869 0.377812 0.449002
2746 1 0.0053308 0.292959 0.469783
379 1 0.152298 0.391333 0.490855
1654 1 0.153374 0.402927 0.447613
3269 2 0.230064 0.349692 0.456086
3268 1 0.213691 0.333117 0.45557
5148 2 0.148961 0.280325 0.494886
2338 1 0.0877912 0.395886 0.48392
4230 2 0.179112 0.442362 0.483464
569 2 0.0121999 0.451884 0.499192
3263 2 0.206519 0.498208 0.455062
2899 1 0.215774 0.363324 0.499809
542 2 0.153064 0.0494011 0.520305
541 1 0.162176 0.0650322 0.515357
543 2 0.143676 0.0706576 0.510843
2773 1 0.154374 0.220978 0.515362
2916 2 0.0103082 0.185227 0.551382
4295 2 0.0936833 0.0960549 0.50084
4561 1 0.0909042 0.231214 0.527037
3028 1 0.223904 0.0378337 0.518937
2751 2 0.145272 0.140526 0.540779
2749 1 0.135849 0.145321 0.548085
4563 2 0.0996495 0.230387 0.519506
5769 2 0.154639 0.107677 0.525785
2914 1 0.0197851 0.16256 0.550908
5768 2 0.141797 0.141888 0.525801
5767 1 0.159138 0.128562 0.529008
2783 2 0.0831466 0.0889713 0.538304
1765 1 0.0746739 0.126081 0.547649
1766 2 0.0554395 0.140648 0.548252
1767 2 0.0926619 0.141726 0.547762
4562 2 0.0717431 0.216806 0.527188
2750 2 0.151109 0.161062 0.551213
5196 2 0.0277447 0.0250061 0.540046
5195 2 0.0189752 0.0399841 0.551422
5194 1 0.0319797 0.023431 0.548009
2990 2 0.200941 0.141165 0.532021
1035 2 0.153617 0.117108 0.559375
2784 2 0.0580813 0.0815062 0.529764
2782 1 0.0772491 0.0713696 0.533337
1881 2 0.219284 0.167665 0.561616
1879 1 0.223706 0.151406 0.555882
5445 2 0.100913 0.16554 0.509764
1055 2 0.184944 0.210504 0.502971
3303 2 0.0771319 0.107757 0.561091
1033 1 0.175081 0.109531 0.561467
4007 2 0.100977 0.24355 0.559268
5444 2 0.127185 0.178083 0.517787
5492 2 0.0388706 0.0745991 0.505436
4006 1 0.124557 0.243576 0.557212
5306 2 0.046424 0.22217 0.509326
2775 2 0.170135 0.213479 0.520883
5491 1 0.0206952 0.0849355 0.509051
2989 1 0.223822 0.145734 0.533361
4281 2 0.100741 0.0402055 0.529287
1707 2 0.242455 0.111212 0.509808
5305 1 0.0245704 0.230615 0.510712
5307 2 0.0246093 0.246533 0.504656
3407 2 0.153873 0.211132 0.553328
3406 1 0.171552 0.195372 0.552748
3408 2 0.185646 0.202958 0.558863
2601 2 0.219437 0.228237 0.528555
347 2 0.036655 0.165779 0.535672
3086 2 0.0131268 0.0975133 0.521137
346 1 0.039038 0.162234 0.527841
3085 1 0.01461 0.0964678 0.52927
2774 2 0.15495 0.243385 0.517612
5493 2 0.0112987 0.0964613 0.502962
4357 1 0.0890444 0.248782 0.504634
3029 2 0.207044 0.0536204 0.516682
5443 1 0.114864 0.158848 0.515658
348 2 0.0437579 0.138698 0.528053
1705 1 0.228244 0.130422 0.509716
5448 2 0.0146718 0.15937 0.513886
3309 2 0.238226 0.011134 0.551064
2599 1 0.19838 0.219357 0.530836
2600 2 0.203225 0.199798 0.534888
2810 2 0.0657652 0.00361816 0.554186
4279 1 0.116369 0.0229648 0.527985
4280 2 0.102346 0.00373917 0.528465
4294 1 0.11053 0.0827653 0.504287
2991 2 0.22661 0.142817 0.541293
5593 1 0.0708921 0.012053 0.507009
4296 2 0.108229 0.0626831 0.500181
3030 2 0.215431 0.0183158 0.515366
2246 2 0.00653512 0.093533 0.562153
5446 1 0.00164014 0.158886 0.507219
1706 2 0.222534 0.132888 0.517481
1697 2 0.156603 0.126504 0.500558
1880 2 0.201215 0.144363 0.554779
5594 2 0.0571788 0.0192631 0.512912
5447 2 0.00206011 0.18141 0.505236
2915 2 0.000204047 0.150477 0.54923
3087 2 0.000466054 0.0796527 0.531759
3132 2 0.0809545 0.477768 0.50173
5469 2 0.150262 0.386278 0.507473
2186 2 0.179439 0.48948 0.527154
1539 2 0.0659165 0.489504 0.544788
624 2 0.176138 0.252741 0.538607
4008 2 0.130716 0.266343 0.556501
4191 2 0.249915 0.400209 0.554894
5680 1 0.128131 0.486779 0.550874
568 1 0.00717064 0.443693 0.506477
1470 2 0.200151 0.435736 0.52513
488 2 0.082619 0.470667 0.516774
5530 1 0.205683 0.480079 0.560399
2013 2 0.125288 0.39954 0.528519
3719 2 0.179564 0.349637 0.528331
3387 2 0.0710848 0.406874 0.522701
2263 1 0.0761363 0.303879 0.529107
2264 2 0.0785764 0.280751 0.528059
2265 2 0.0929726 0.312098 0.524204
623 2 0.155667 0.277507 0.532855
3718 1 0.186388 0.359014 0.535351
4651 1 0.163747 0.32646 0.553717
4653 2 0.162753 0.306387 0.549491
4652 2 0.144565 0.324776 0.558631
622 1 0.168155 0.274952 0.539601
1469 2 0.167506 0.419846 0.523108
2844 2 0.190993 0.394758 0.542581
3125 2 0.0656461 0.333418 0.53772
3126 2 0.0896175 0.363584 0.539856
3124 1 0.0677147 0.355403 0.541528
1689 2 0.0462845 0.381417 0.504962
986 2 0.0237898 0.300456 0.535192
2843 2 0.185932 0.405728 0.554238
2842 1 0.203336 0.402102 0.549069
3385 1 0.0571066 0.388773 0.520665
1027 1 0.233702 0.291447 0.536431
1029 2 0.212194 0.289696 0.539724
1028 2 0.228778 0.28589 0.52865
5531 2 0.221949 0.464266 0.562272
2012 2 0.122305 0.423396 0.537413
2801 2 0.119281 0.439409 0.509387
489 2 0.0570775 0.47732 0.525849
4358 2 0.108875 0.262095 0.50527
3720 2 0.173881 0.347768 0.540872
2011 1 0.111232 0.40385 0.534799
2800 1 0.120574 0.460679 0.513318
3110 2 0.195553 0.293193 0.51574
3109 1 0.216813 0.283567 0.516181
3386 2 0.0591001 0.374272 0.526677
2802 2 0.141806 0.459558 0.516676
6002 4 0.144415 0.310139 0.514012
385 1 0.0391768 0.40361 0.556238
386 2 0.0487723 0.386176 0.551663
5467 1 0.144039 0.387399 0.515189
1214 2 0.0363277 0.470762 0.562024
1213 1 0.0559696 0.470938 0.5573
1468 1 0.177427 0.44167 0.524333
387 2 0.0479378 0.423997 0.55308
487 1 0.0590635 0.47186 0.518091
985 1 0.00356496 0.289597 0.537443
316 1 0.150145 0.4252 0.561283
1003 1 0.242188 0.428075 0.527666
77 2 0.0126253 0.393721 0.528975
570 2 0.0258226 0.449781 0.511216
5468 2 0.141682 0.363532 0.51708
5681 2 0.111119 0.489884 0.545581
3111 2 0.222081 0.285255 0.508324
3849 2 0.240114 0.359158 0.511536
318 2 0.149587 0.447195 0.557915
3800 2 0.0994201 0.320393 0.501673
2270 2 0.203695 0.331219 0.55963
2254 1 0.243146 0.480868 0.51473
1004 2 0.248585 0.432479 0.535328
5682 2 0.148233 0.494079 0.547208
2256 2 0.248498 0.458887 0.517367
3373 1 0.234814 0.0675534 0.621219
1101 2 0.169482 0.0217812 0.619134
3301 1 0.073844 0.105501 0.569014
976 1 0.097597 0.00173357 0.622673
3701 2 0.220897 0.00478333 0.59285
3302 2 0.0858118 0.0858768 0.571104
4968 2 0.102169 0.137008 0.592962
2006 2 0.0661391 0.00878757 0.583411
3894 2 0.19149 0.019282 0.575458
1082 2 0.239157 0.0193278 0.619329
4545 2 0.147836 0.226452 0.618491
1034 2 0.171422 0.100482 0.569115
3054 2 0.200527 0.0651551 0.603991
5906 2 0.0270194 0.23899 0.562811
3990 2 0.040714 0.0505811 0.604288
3019 1 0.18205 0.144744 0.608184
2670 2 0.00375029 0.133749 0.619085
3893 2 0.170706 0.00487371 0.56637
1791 2 0.0352264 0.221189 0.605125
3052 1 0.205281 0.05909 0.596623
4967 2 0.0818236 0.153656 0.600878
1803 2 0.228681 0.222013 0.565022
3892 1 0.169144 0.0184135 0.573009
5275 1 0.0930256 0.171021 0.57237
912 2 0.152503 0.11433 0.617126
5502 2 0.229608 0.0918558 0.56262
5058 2 0.195556 0.135957 0.584948
27 2 0.0545342 0.108214 0.594501
5277 2 0.0860658 0.148435 0.571638
260 2 0.110246 0.0508488 0.601416
715 1 0.110625 0.0494111 0.572786
716 2 0.0975664 0.0435682 0.579123
717 2 0.129462 0.0358337 0.573752
261 2 0.0999954 0.0859293 0.598697
3988 1 0.0290571 0.0525651 0.611255
5056 1 0.218364 0.141537 0.58392
3825 2 0.178932 0.0805221 0.58851
3823 1 0.16558 0.0966669 0.584906
3824 2 0.146735 0.0924463 0.58907
3053 2 0.221856 0.0753899 0.594766
259 1 0.118807 0.072543 0.600571
25 1 0.0438494 0.090434 0.589932
4836 2 0.127606 0.189834 0.579337
4834 1 0.14189 0.20814 0.580653
4835 2 0.146729 0.215582 0.57303
5240 2 0.225134 0.2497 0.594643
2845 1 0.0849578 0.204432 0.596909
2846 2 0.102316 0.209372 0.602275
1783 1 0.18152 0.225195 0.595748
1784 2 0.168223 0.214424 0.590009
2847 2 0.0955085 0.206254 0.589832
3021 2 0.200518 0.148838 0.603389
5276 2 0.0734521 0.18347 0.572152
5905 1 0.0477363 0.240386 0.5668
26 2 0.0511097 0.0964546 0.582527
1785 2 0.164836 0.23026 0.601228
5057 2 0.217683 0.145013 0.576017
2668 1 0.00887007 0.145996 0.612352
3020 2 0.187047 0.158391 0.614253
911 2 0.13462 0.0846656 0.613107
1802 2 0.218401 0.208025 0.576916
910 1 0.14148 0.0950614 0.619749
1801 1 0.217578 0.204506 0.568911
3145 1 0.247266 0.219083 0.622524
1789 1 0.0203771 0.215443 0.610873
1208 2 0.00899685 0.0487579 0.580464
5314 1 0.089216 0.00912105 0.596074
4543 1 0.14213 0.24302 0.61352
1790 2 0.0156458 0.192612 0.608938
4966 1 0.0836661 0.131929 0.597513
3989 2 0.020698 0.0744984 0.610737
2005 1 0.0499636 0.00850781 0.577535
5503 1 0.234 0.15374 0.624552
1209 2 0.00154388 0.0751377 0.587941
5315 2 0.0806434 0.000649185 0.602888
3146 2 0.240226 0.197896 0.624979
5211 2 0.0257147 0.497441 0.584871
1021 1 0.00691449 0.480638 0.575669
6003 3 0.0168082 0.252731 0.62479
1598 2 0.226575 0.400434 0.614291
4988 2 0.0186012 0.448135 0.606623
1178 2 0.146115 0.390907 0.622745
2269 1 0.21467 0.33661 0.566416
267 2 0.225275 0.453708 0.617686
462 2 0.101168 0.323739 0.591865
384 2 0.17838 0.342832 0.590496
98 2 0.117928 0.476718 0.621576
3879 2 0.013051 0.308075 0.608358
4369 1 0.242478 0.499233 0.579192
3298 1 0.129326 0.317855 0.618542
4533 2 0.0034525 0.267085 0.580897
266 2 0.246117 0.472888 0.609978
4065 2 0.0732229 0.368866 0.579183
5901 2 0.242614 0.299368 0.613651
3547 1 0.104909 0.459698 0.595403
2198 2 0.10872 0.33466 0.570782
2199 2 0.0921688 0.302434 0.568814
2197 1 0.112458 0.313699 0.567007
383 2 0.209014 0.331508 0.585524
1215 2 0.0739373 0.46916 0.562563
382 1 0.194945 0.326447 0.591845
265 1 0.235185 0.451413 0.610685
5532 2 0.191899 0.47491 0.566551
3299 2 0.127711 0.341369 0.617396
317 2 0.127969 0.423318 0.564264
5190 2 0.0915789 0.417002 0.614679
2531 2 0.0738704 0.432253 0.576187
828 2 0.206638 0.461829 0.590299
1137 2 0.181538 0.278766 0.609099
5241 2 0.239826 0.273261 0.587054
3460 1 0.0389825 0.393457 0.577554
5907 2 0.0472763 0.261218 0.57089
1179 2 0.172097 0.386216 0.614001
826 1 0.2039 0.438892 0.591299
1135 1 0.20201 0.290603 0.610116
3877 1 0.0208367 0.286007 0.609305
2422 1 0.0339674 0.356036 0.607523
4062 2 0.137987 0.472618 0.573276
1134 2 0.169241 0.399149 0.572177
5188 1 0.086198 0.398339 0.609805
4544 2 0.128981 0.256383 0.618418
3878 2 0.0378406 0.283699 0.603836
4060 1 0.152079 0.491881 0.573543
3461 2 0.0165187 0.394929 0.580091
4989 2 0.0390657 0.475636 0.610525
5396 2 0.24951 0.306944 0.568698
4063 1 0.0946074 0.362629 0.582149
1286 2 0.0641364 0.2952 0.585978
1285 1 0.0447334 0.292953 0.581117
1287 2 0.0294234 0.307931 0.584013
3948 2 0.0555786 0.339814 0.618922
1136 2 0.205515 0.303752 0.603382
4064 2 0.100605 0.382005 0.586161
3549 2 0.114822 0.461118 0.602468
2271 2 0.198316 0.350477 0.569841
5189 2 0.107531 0.387814 0.60958
2423 2 0.0224546 0.35845 0.600376
4987 1 0.038616 0.460007 0.604523
3462 2 0.03602 0.390699 0.569725
1133 2 0.184641 0.406657 0.583227
461 2 0.120345 0.299534 0.599095
2530 1 0.0932401 0.444773 0.574383
2532 2 0.105971 0.446103 0.581119
3548 2 0.0823731 0.457575 0.597453
97 1 0.106806 0.456454 0.61969
2424 2 0.0476875 0.375263 0.608275
5239 1 0.244935 0.262117 0.594017
827 2 0.211965 0.43426 0.598561
1597 1 0.214883 0.39214 0.620571
460 1 0.101531 0.301273 0.59447
1132 1 0.175947 0.389259 0.578993
1177 1 0.148542 0.387545 0.614773
5210 2 0.0366405 0.490497 0.596102
3300 2 0.106632 0.313884 0.62033
1599 2 0.207269 0.411601 0.624377
3375 2 0.24734 0.066505 0.627958
5844 2 0.139448 0.19318 0.637351
2160 2 0.160221 0.0479146 0.639673
3693 2 0.0610563 0.0498222 0.633287
5399 2 0.141265 0.106856 0.632291
5398 1 0.138858 0.119007 0.639331
757 1 0.232235 0.154227 0.647114
2356 1 0.0470107 0.192845 0.646576
695 2 0.193039 0.167028 0.645885
5458 1 0.1688 0.236238 0.656738
5400 2 0.139749 0.100011 0.643952
5718 2 0.0875331 0.228201 0.631576
2159 2 0.162811 0.0516756 0.652459
5843 2 0.110705 0.173261 0.632784
696 2 0.157832 0.158727 0.647653
2158 1 0.14713 0.0535394 0.646182
694 1 0.171345 0.177337 0.646222
36 2 0.211117 0.0243503 0.659232
4819 1 0.24727 0.00379821 0.657633
3957 2 0.0017822 0.0555722 0.64763
5459 2 0.192457 0.237558 0.658017
35 2 0.198617 0.0430754 0.668806
3691 1 0.0400669 0.0574803 0.635614
5460 2 0.167321 0.217285 0.651753
34 1 0.194014 0.0405838 0.661202
6000 2 0.0720328 0.0197739 0.650997
3327 2 0.0199598 0.23686 0.64954
2357 2 0.0478732 0.180997 0.640105
2358 2 0.0558374 0.176558 0.651435
5716 1 0.0773675 0.247956 0.629124
5842 1 0.120113 0.195268 0.632651
3692 2 0.0257359 0.0488921 0.630045
5999 2 0.107294 0.0273923 0.648941
5504 2 0.225677 0.131411 0.625117
5998 1 0.0901284 0.0115571 0.646703
759 2 0.233288 0.155416 0.639167
1020 2 0.230302 0.465988 0.639855
1422 2 0.191154 0.323969 0.644677
3928 1 0.181556 0.41046 0.648901
1140 2 0.142753 0.284132 0.65655
665 2 0.00415988 0.302798 0.640557
3947 2 0.044384 0.323826 0.629417
1017 2 0.0319076 0.468408 0.628991
5097 2 0.0142719 0.420365 0.634556
1018 1 0.249534 0.473301 0.643832
3325 1 0.00448228 0.250023 0.645382
664 1 0.00576804 0.315523 0.633698
1138 1 0.138712 0.306381 0.654641
5095 1 0.0363283 0.426719 0.63304
162 2 0.1141 0.395635 0.641919
3946 1 0.0638371 0.329057 0.625436
1139 2 0.158625 0.317012 0.657037
3906 2 0.180522 0.465439 0.627828
160 1 0.113951 0.414721 0.636849
5366 2 0.090155 0.359822 0.654284
1420 1 0.196626 0.339294 0.650606
2624 2 0.177852 0.301315 0.628144
5365 1 0.112713 0.364564 0.652017
853 1 0.0802063 0.296853 0.646744
5096 2 0.0466098 0.407767 0.629998
2623 1 0.186625 0.290571 0.634727
3929 2 0.159444 0.402149 0.649301
3803 2 0.232136 0.280626 0.639145
854 2 0.103236 0.294963 0.648773
2625 2 0.168368 0.275568 0.63635
3904 1 0.19695 0.449996 0.63
5717 2 0.0791151 0.260829 0.635922
5367 2 0.124337 0.344343 0.654134
1421 2 0.217905 0.343201 0.647163
855 2 0.0815787 0.313987 0.641259
3930 2 0.191756 0.391637 0.652256
1015 1 0.0277307 0.490039 0.625825
161 2 0.0962388 0.428348 0.63938
3905 2 0.18495 0.440968 0.636218
99 2 0.111007 0.44502 0.626589
5621 2 0.15068 0.551134 0.37122
959 2 0.0836354 0.62885 0.360456
958 1 0.107373 0.626076 0.35945
3860 2 0.00291104 0.679007 0.37413
2797 1 0.160354 0.592174 0.365792
1325 2 0.0256433 0.620982 0.366607
960 2 0.114567 0.645546 0.355825
3859 1 0.00702615 0.667947 0.367308
2190 2 0.02891 0.513705 0.353198
2555 2 0.0997094 0.697369 0.351345
2554 1 0.119899 0.685829 0.352175
2556 2 0.13522 0.703222 0.350214
2799 2 0.144231 0.608799 0.363672
5309 2 0.0592933 0.53744 0.374516
1324 1 0.0340492 0.59903 0.365216
1708 1 0.175848 0.735229 0.353467
2188 1 0.0470848 0.520808 0.357724
278 2 0.22702 0.516909 0.367774
5622 2 0.171183 0.521463 0.374065
56 2 0.240466 0.714017 0.371438
1709 2 0.192504 0.725452 0.358316
2798 2 0.164797 0.584408 0.35838
2111 2 0.124887 0.528665 0.348303
2110 1 0.130196 0.551401 0.349408
2112 2 0.110064 0.561318 0.35207
55 1 0.219524 0.706172 0.368793
277 1 0.206663 0.504592 0.369973
57 2 0.215645 0.690926 0.374666
1326 2 0.0136449 0.591535 0.361539
2189 2 0.0611411 0.506524 0.354061
5310 2 0.0586868 0.574363 0.372728
5620 1 0.149133 0.529981 0.374881
3569 2 0.139143 0.928921 0.37003
4194 2 0.0047244 0.86554 0.368387
2673 2 0.157922 0.850162 0.367401
2322 2 0.123145 0.759582 0.354305
476 2 0.226769 0.929958 0.367142
1549 1 0.233256 0.760916 0.344343
3588 2 0.0957402 0.848 0.358118
4193 2 0.031317 0.842651 0.365366
475 1 0.240461 0.911805 0.364468
5205 2 0.11079 0.927548 0.350843
5357 2 0.0129396 0.909676 0.359794
2671 1 0.150625 0.845207 0.359904
1710 2 0.187708 0.751381 0.349034
1550 2 0.244473 0.754759 0.350994
3045 2 0.211423 0.801569 0.351591
4192 1 0.0114762 0.843045 0.369665
3043 1 0.2071 0.815848 0.357771
5204 2 0.128345 0.897738 0.354995
5203 1 0.124176 0.920062 0.357019
2889 2 0.211109 0.97635 0.370739
2672 2 0.170352 0.840878 0.355581
3586 1 0.0732929 0.84207 0.35961
3044 2 0.226891 0.821189 0.361523
3587 2 0.0720078 0.819094 0.357485
2320 1 0.113633 0.774846 0.359613
2321 2 0.131397 0.785728 0.363494
2193 2 0.0965976 0.764897 0.374346
5841 2 0.244985 0.988481 0.354719
1994 2 0.125427 0.666932 0.395279
5865 2 0.198513 0.656469 0.391091
1993 1 0.125369 0.649353 0.400397
2946 2 0.00853193 0.508257 0.384105
2703 2 0.0795418 0.745621 0.433125
2551 1 0.221113 0.614699 0.395347
701 2 0.164611 0.552782 0.389208
1995 2 0.115103 0.631741 0.396093
2553 2 0.238515 0.602341 0.391825
1629 2 0.0549984 0.547638 0.416679
970 1 0.138081 0.68521 0.418385
700 1 0.161448 0.56462 0.396274
972 2 0.135098 0.670429 0.412274
1627 1 0.0467737 0.546838 0.424316
702 2 0.147695 0.582427 0.394323
971 2 0.139695 0.705858 0.414755
2252 2 0.0201694 0.566544 0.403695
2702 2 0.112336 0.732072 0.434384
4479 2 0.114533 0.718415 0.383552
4477 1 0.129418 0.699529 0.38446
5744 2 0.0775695 0.520605 0.399653
2552 2 0.213454 0.598805 0.400567
852 2 0.211945 0.554434 0.413918
850 1 0.233437 0.564606 0.412758
491 2 0.124376 0.607512 0.378626
5616 2 0.0050039 0.646029 0.396793
3631 1 0.167152 0.551838 0.418448
1911 2 0.0841545 0.610364 0.416923
3632 2 0.149972 0.567963 0.420247
490 1 0.115497 0.601119 0.385648
396 2 0.0250496 0.607596 0.416375
394 1 0.0395963 0.625594 0.414408
395 2 0.0262724 0.644727 0.414803
5743 1 0.0679146 0.542294 0.400156
5745 2 0.0699336 0.548338 0.392421
111 2 0.21678 0.732182 0.42165
3952 1 0.182211 0.73558 0.410487
851 2 0.240494 0.569658 0.420281
734 2 0.0077291 0.561266 0.435084
109 1 0.237676 0.729775 0.425267
492 2 0.0990521 0.584386 0.38357
5048 2 0.200013 0.71852 0.383879
3633 2 0.161427 0.54906 0.410638
5199 2 0.00390387 0.57623 0.379184
3953 2 0.18605 0.735271 0.402474
4146 2 0.0189547 0.721753 0.416131
4877 2 0.0305827 0.694368 0.436154
4144 1 0.0106233 0.700234 0.414188
3000 2 0.0344518 0.720575 0.380418
2998 1 0.023122 0.717344 0.387228
5863 1 0.194376 0.674215 0.386176
5047 1 0.201732 0.74061 0.386848
5864 2 0.170623 0.677518 0.385925
600 2 0.232619 0.675048 0.425882
4478 2 0.138926 0.70013 0.377062
5308 1 0.0687723 0.557287 0.37753
1628 2 0.0542684 0.525745 0.426967
2381 2 0.157561 0.510909 0.428817
1909 1 0.105944 0.609744 0.419959
1910 2 0.115335 0.62789 0.415953
2306 2 0.0579957 0.667957 0.420102
330 2 0.142944 0.68307 0.432825